<preamble>

<basis_specs>
===============================================================================
Si                   Z=  14    Mass=  28.090        Charge= 0.17977+309
Lmxo=2 Lmxkb= 2    BasisType=split      Semic=F
L=0  Nsemic=0  Cnfigmx=3
          i=1  nzeta=2  polorb=0  (3s)
            splnorm:   0.15000    
               vcte:    40.000    
               rinn:    4.8628    
               qcoe:    0.0000    
               qyuk:    0.0000    
               qwid:   0.10000E-01
                rcs:    5.4031      3.8545    
            lambdas:    1.0000      1.0000    
L=1  Nsemic=0  Cnfigmx=3
          i=1  nzeta=2  polorb=1  (3p)  (to be polarized perturbatively)
            splnorm:   0.15000    
               vcte:    40.000    
               rinn:    6.1596    
               qcoe:    0.0000    
               qyuk:    0.0000    
               qwid:   0.10000E-01
                rcs:    6.8440      4.9620    
            lambdas:    1.0000      1.0000    
L=2  Nsemic=0  Cnfigmx=3
          i=1  nzeta=0  polorb=0  (3d)  (perturbative polarization orbital) (from 3p)
-------------------------------------------------------------------------------
L=0  Nkbl=1  erefs: 0.17977+309
L=1  Nkbl=1  erefs: 0.17977+309
L=2  Nkbl=1  erefs: 0.17977+309
===============================================================================
</basis_specs>

<pseudopotential_header>
 Si pw nrl pcec
 ONCVPSP-3.2018-03-09Hamann's oncvpsp                        
 3s 2.00  r= 1.60/3p 2.00  r= 1.72/3d 0.00  r= 1.92/                    3s:3p:
</pseudopotential_header>
</preamble>
Si                            # Symbol
Si                            # Label
   14                         # Atomic number
     4.00000000000                             # Valence charge
     28.0900000000        # Mass 
     16.7535450916        # Self energy 
   2   5                      # Lmax for basis, no. of nl orbitals 
   2   6                      # Lmax for projectors, no. of nl KB projectors
# PAOs:__________________________
  0  3  1  0  2.000000   #orbital l, n, z, is_polarized, population
 500    0.1082794110990659E-01     5.403142613843388     # npts, delta, cutoff
     0.000000000000000        0.1103824678923437    
    0.1082794110990659E-01    0.1104480894601535    
    0.2165588221981318E-01    0.1106471454987492    
    0.3248382332971977E-01    0.1109788619391641    
    0.4331176443962636E-01    0.1114431705006149    
    0.5413970554953295E-01    0.1120399718361283    
    0.6496764665943953E-01    0.1127691315436184    
    0.7579558776934613E-01    0.1136304752825000    
    0.8662352887925272E-01    0.1146237829950641    
    0.9745146998915931E-01    0.1157487823231700    
    0.1082794110990659        0.1170051413325194    
    0.1191073522089725        0.1183924606704175    
    0.1299352933188791        0.1199102652934377    
    0.1407632344287857        0.1215579959094298    
    0.1515911755386923        0.1233350002838714    
    0.1624191166485988        0.1252405245636234    
    0.1732470577585054        0.1272737047716822    
    0.1840749988684120        0.1294335586245201    
    0.1949029399783186        0.1317189778191123    
    0.2057308810882252        0.1341287209298423    
    0.2165588221981318        0.1366614070462828    
    0.2273867633080384        0.1393155102715219    
    0.2382147044179450        0.1420893551874313    
    0.2490426455278516        0.1449811133782910    
    0.2598705866377581        0.1479888010877426    
    0.2706985277476647        0.1511102780664101    
    0.2815264688575713        0.1543432476490190    
    0.2923544099674779        0.1576852580807471    
    0.3031823510773845        0.1611337050931975    
    0.3140102921872911        0.1646858357111017    
    0.3248382332971977        0.1683387532519665    
    0.3356661744071043        0.1720894234626851    
    0.3464941155170109        0.1759346817199382    
    0.3573220566269175        0.1798712412053038    
    0.3681499977368241        0.1838957019516243    
    0.3789779388467306        0.1880045606445885    
    0.3898058799566372        0.1921942210528764    
    0.4006338210665438        0.1964610049517432    
    0.4114617621764504        0.2008011633987313    
    0.4222897032863570        0.2052108882163768    
    0.4331176443962636        0.2096863235353745    
    0.4439455855061702        0.2142235772526999    
    0.4547735266160768        0.2188187322626071    
    0.4656014677259834        0.2234678573241883    
    0.4764294088358900        0.2281670174371465    
    0.4872573499457966        0.2329122836074818    
    0.4980852910557031        0.2376997418967175    
    0.5089132321656097        0.2425255016618978    
    0.5197411732755163        0.2473857029086194    
    0.5305691143854229        0.2522765226955580    
    0.5413970554953295        0.2571941805460402    
    0.5522249966052361        0.2621349428398650    
    0.5630529377151426        0.2670951261765434    
    0.5738808788250492        0.2720710997190245    
    0.5847088199349558        0.2770592865445687    
    0.5955367610448624        0.2820561640463629    
    0.6063647021547690        0.2870582634454918    
    0.6171926432646756        0.2920621684877014    
    0.6280205843745822        0.2970645134127525    
    0.6388485254844888        0.3020619802958855    
    0.6496764665943954        0.3070512958707504    
    0.6605044077043020        0.3120292279509744    
    0.6713323488142086        0.3169925815732245    
    0.6821602899241151        0.3219381949880560    
    0.6929882310340217        0.3268629356259957    
    0.7038161721439283        0.3317636961651809    
    0.7146441132538349        0.3366373908234705    
    0.7254720543637415        0.3414809519923790    
    0.7362999954736481        0.3462913273224930    
    0.7471279365835547        0.3510654773604500    
    0.7579558776934613        0.3558003738261679    
    0.7687838188033679        0.3604929986061010    
    0.7796117599132745        0.3651403435240324    
    0.7904397010231811        0.3697394109356013    
    0.8012676421330877        0.3742872151766398    
    0.8120955832429942        0.3787807848787415    
    0.8229235243529008        0.3832171661486473    
    0.8337514654628074        0.3875934265912397    
    0.8445794065727140        0.3919066601395229    
    0.8554073476826206        0.3961539926391972    
    0.8662352887925272        0.4003325881206254    
    0.8770632299024338        0.4044396556773119    
    0.8878911710123404        0.4084724568578181    
    0.8987191121222470        0.4124283134674136    
    0.9095470532321536        0.4163046156670127    
    0.9203749943420602        0.4200988302501040    
    0.9312029354519668        0.4238085089736626    
    0.9420308765618733        0.4274312968164394    
    0.9528588176717799        0.4309649400376674    
    0.9636867587816865        0.4344072939110321    
    0.9745146998915931        0.4377563300127691    
    0.9853426410014997        0.4410101429488548    
    0.9961705821114063        0.4441669564143370    
     1.006998523221313        0.4472251284878196    
     1.017826464331219        0.4501831560757322    
     1.028654405441126        0.4530396784341241    
     1.039482346551033        0.4557934797100898    
     1.050310287660939        0.4584434904602975    
     1.061138228770846        0.4609887881202024    
     1.071966169880752        0.4634285964141213    
     1.082794110990659        0.4657622837130905    
     1.093622052100566        0.4679893603641257    
     1.104449993210472        0.4701094750307690    
     1.115277934320379        0.4721224101004560    
     1.126105875430285        0.4740280762289341    
     1.136933816540192        0.4758265061055342    
     1.147761757650098        0.4775178475352185    
     1.158589698760005        0.4791023559439275    
     1.169417639869912        0.4805803864225012    
     1.180245580979818        0.4819523854313557    
     1.191073522089725        0.4832188822929353    
     1.201901463199631        0.4843804806017266    
     1.212729404309538        0.4854378496822163    
     1.223557345419445        0.4863917162236654    
     1.234385286529351        0.4872428562169006    
     1.245213227639258        0.4879920873126559    
     1.256041168749164        0.4886402617133427    
     1.266869109859071        0.4891882597006879    
     1.277697050968978        0.4896369838905760    
     1.288524992078884        0.4899873542938919    
     1.299352933188791        0.4902403042483465    
     1.310180874298697        0.4903967772714904    
     1.321008815408604        0.4904577248695302    
     1.331836756518511        0.4904241053205244    
     1.342664697628417        0.4902968834342416    
     1.353492638738324        0.4900770312747196    
     1.364320579848230        0.4897655298156204    
     1.375148520958137        0.4893633714831315    
     1.385976462068043        0.4888715635266144    
     1.396804403177950        0.4882911321437166    
     1.407632344287857        0.4876231272744809    
     1.418460285397763        0.4868686279682316    
     1.429288226507670        0.4860287482179296    
     1.440116167617576        0.4851046431493782    
     1.450944108727483        0.4840975154472179    
     1.461772049837390        0.4830086218961850    
     1.472599990947296        0.4818392799146577    
     1.483427932057203        0.4805908739580484    
     1.494255873167109        0.4792648616721770    
     1.505083814277016        0.4778627796812144    
     1.515911755386923        0.4763862489011489    
     1.526739696496829        0.4748369792777658    
     1.537567637606736        0.4732167738641093    
     1.548395578716642        0.4715275827870561    
     1.559223519826549        0.4697713945049177    
     1.570051460936456        0.4679502663059434    
     1.580879402046362        0.4660663961896270    
     1.591707343156269        0.4641220865953201    
     1.602535284266175        0.4621197484216322    
     1.613363225376082        0.4600618670512434    
     1.624191166485988        0.4579509416496104    
     1.635019107595895        0.4557894260270583    
     1.645847048705802        0.4535796939338769    
     1.656674989815708        0.4513240433535184    
     1.667502930925615        0.4490247065354780    
     1.678330872035521        0.4466838496704952    
     1.689158813145428        0.4443035735938912    
     1.699986754255335        0.4418859158636552    
     1.710814695365241        0.4394328524333699    
     1.721642636475148        0.4369462992645692    
     1.732470577585054        0.4344281138996243    
     1.743298518694961        0.4318800969952605    
     1.754126459804868        0.4293039938177573    
     1.764954400914774        0.4267014957008488    
     1.775782342024681        0.4240742414673235    
     1.786610283134587        0.4214238188152889    
     1.797438224244494        0.4187517656700223    
     1.808266165354401        0.4160595715023127    
     1.819094106464307        0.4133486786141654    
     1.829922047574214        0.4106204833926971    
     1.840749988684120        0.4078763375330489    
     1.851577929794027        0.4051175492310931    
     1.862405870903934        0.4023453843467020    
     1.873233812013840        0.3995610675383090    
     1.884061753123747        0.3967657833694788    
     1.894889694233653        0.3939606773881776    
     1.905717635343560        0.3911468571794113    
     1.916545576453466        0.3883253933918840    
     1.927373517563373        0.3854973207393055    
     1.938201458673280        0.3826636389769601    
     1.949029399783186        0.3798253138541305    
     1.959857340893093        0.3769832780429548    
     1.970685282002999        0.3741384320442785    
     1.981513223112906        0.3712916450710452    
     1.992341164222813        0.3684437559097590    
     2.003169105332719        0.3655955737605366    
     2.013997046442626        0.3627478790562490    
     2.024824987552532        0.3599014242612456    
     2.035652928662439        0.3570569346501412    
     2.046480869772346        0.3542151090671267    
     2.057308810882252        0.3513766206662613    
     2.068136751992159        0.3485421176331902    
     2.078964693102065        0.3457122238887196    
     2.089792634211972        0.3428875397746696    
     2.100620575321878        0.3400686427224229    
     2.111448516431785        0.3372560879045653    
     2.122276457541691        0.3344504088700184    
     2.133104398651598        0.3316521181630439    
     2.143932339761505        0.3288617079265002    
     2.154760280871411        0.3260796504897125    
     2.165588221981318        0.3233063989413238    
     2.176416163091225        0.3205423876874711    
     2.187244104201131        0.3177880329956335    
     2.198072045311038        0.3150437335244882    
     2.208899986420944        0.3123098708401040    
     2.219727927530851        0.3095868099187893    
     2.230555868640757        0.3068748996369158    
     2.241383809750664        0.3041744732480182    
     2.252211750860571        0.3014858488474790    
     2.263039691970477        0.2988093298250851    
     2.273867633080384        0.2961452053057501    
     2.284695574190291        0.2934937505786816    
     2.295523515300197        0.2908552275152686    
     2.306351456410104        0.2882298849759616    
     2.317179397520010        0.2856179592064080    
     2.328007338629917        0.2830196742230993    
     2.338835279739823        0.2804352421887871    
     2.349663220849730        0.2778648637779107    
     2.360491161959636        0.2753087285322820    
     2.371319103069543        0.2727670152072616    
     2.382147044179450        0.2702398921086598    
     2.392974985289356        0.2677275174205856    
     2.403802926399263        0.2652300395244707    
     2.414630867509170        0.2627475973094797    
     2.425458808619076        0.2602803204745196    
     2.436286749728983        0.2578283298220602    
     2.447114690838889        0.2553917375439614    
     2.457942631948796        0.2529706474995089    
     2.468770573058702        0.2505651554858532    
     2.479598514168609        0.2481753495010390    
     2.490426455278516        0.2458013099998097    
     2.501254396388422        0.2434431101423706    
     2.512082337498329        0.2411008160362854    
     2.522910278608236        0.2387744869716782    
     2.533738219718142        0.2364641756499142    
     2.544566160828049        0.2341699284059179    
     2.555394101937955        0.2318917854242947    
     2.566222043047862        0.2296297809494131    
     2.577049984157768        0.2273839434895967    
     2.587877925267675        0.2251542960155853    
     2.598705866377581        0.2229408561534012    
     2.609533807487488        0.2207436363717735    
     2.620361748597395        0.2185626441642544    
     2.631189689707301        0.2163978822261675    
     2.642017630817208        0.2142493486265195    
     2.652845571927115        0.2121170369750078    
     2.663673513037021        0.2100009365842502    
     2.674501454146928        0.2079010326273599    
     2.685329395256834        0.2058173062909906    
     2.696157336366741        0.2037497349239647    
     2.706985277476647        0.2016982921816066    
     2.717813218586554        0.1996629481658875    
     2.728641159696461        0.1976436695614981    
     2.739469100806367        0.1956404197679495    
     2.750297041916274        0.1936531590278146    
     2.761124983026181        0.1916818445512054    
     2.771952924136087        0.1897264306365916    
     2.782780865245993        0.1877868687880533    
     2.793608806355900        0.1858631078290660    
     2.804436747465807        0.1839550940129067    
     2.815264688575713        0.1820627711297775    
     2.826092629685620        0.1801860806107264    
     2.836920570795527        0.1783249616284593    
     2.847748511905433        0.1764793511951210    
     2.858576453015340        0.1746491842571288    
     2.869404394125246        0.1728343937871408    
     2.880232335235153        0.1710349108732297    
     2.891060276345059        0.1692506648053468    
     2.901888217454966        0.1674815831591417    
     2.912716158564872        0.1657275918772133    
     2.923544099674779        0.1639886153478634    
     2.934372040784686        0.1622645764814168    
     2.945199981894592        0.1605553967841789    
     2.956027923004499        0.1588609964300933    
     2.966855864114406        0.1571812943301600    
     2.977683805224312        0.1555162081996840    
     2.988511746334219        0.1538656546234023    
     2.999339687444125        0.1522295491185583    
     3.010167628554032        0.1506078061959752    
     3.020995569663938        0.1490003394191835    
     3.031823510773845        0.1474070614616589    
     3.042651451883752        0.1458278841622221    
     3.053479392993658        0.1442627185786509    
     3.064307334103565        0.1427114750395549    
     3.075135275213472        0.1411740631945637    
     3.085963216323378        0.1396503920628702    
     3.096791157433285        0.1381403700801815    
     3.107619098543191        0.1366439051441186    
     3.118447039653098        0.1351609046581078    
     3.129274980763004        0.1336912755738096    
     3.140102921872911        0.1322349244321231    
     3.150930862982817        0.1307917574028097    
     3.161758804092724        0.1293616803227695    
     3.172586745202631        0.1279445987330167    
     3.183414686312537        0.1265404179143838    
     3.194242627422444        0.1251490429219946    
     3.205070568532351        0.1237703786185401    
     3.215898509642257        0.1224043297063938    
     3.226726450752164        0.1210508007585932    
     3.237554391862070        0.1197096962487294    
     3.248382332971977        0.1183809205797682    
     3.259210274081883        0.1170643781118384    
     3.270038215191790        0.1157599731890150    
     3.280866156301697        0.1144676101651259    
     3.291694097411603        0.1131871934286132    
     3.302522038521510        0.1119186274264737    
     3.313349979631417        0.1106618166873067    
     3.324177920741323        0.1094166658434956    
     3.335005861851230        0.1081830796525467    
     3.345833802961136        0.1069609630176141    
     3.356661744071043        0.1057502210072282    
     3.367489685180949        0.1045507588742585    
     3.378317626290856        0.1033624820741263    
     3.389145567400762        0.1021852962822965    
     3.399973508510669        0.1010191074110639    
     3.410801449620576        0.9986382162565809E-01
     3.421629390730482        0.9871934535968629E-01
     3.432457331840389        0.9758558532993515E-01
     3.443285272950296        0.9646244855054882E-01
     3.454113214060202        0.9534984234660396E-01
     3.464941155170109        0.9424767436709733E-01
     3.475769096280015        0.9315585259736725E-01
     3.486597037389922        0.9207428537096236E-01
     3.497424978499828        0.9100288138097748E-01
     3.508252919609735        0.8994154969086997E-01
     3.519080860719642        0.8889019974477613E-01
     3.529908801829548        0.8784874137733842E-01
     3.540736742939455        0.8681708482306308E-01
     3.551564684049362        0.8579514072521824E-01
     3.562392625159268        0.8478282014429094E-01
     3.573220566269175        0.8378003456601281E-01
     3.584048507379081        0.8278669590897157E-01
     3.594876448488988        0.8180271653181798E-01
     3.605704389598894        0.8082800924008234E-01
     3.616532330708801        0.7986248729261410E-01
     3.627360271818707        0.7890606440765323E-01
     3.638188212928614        0.7795865476854798E-01
     3.649016154038521        0.7702017302912949E-01
     3.659844095148427        0.7609053431875244E-01
     3.670672036258334        0.7516965424701541E-01
     3.681499977368241        0.7425744890816820E-01
     3.692327918478147        0.7335383488521816E-01
     3.703155859588054        0.7245872925374568E-01
     3.713983800697960        0.7157204958543489E-01
     3.724811741807867        0.7069371395133368E-01
     3.735639682917773        0.6982364092484840E-01
     3.746467624027680        0.6896174958448295E-01
     3.757295565137587        0.6810795951633111E-01
     3.768123506247493        0.6726219081632989E-01
     3.778951447357400        0.6642436409228207E-01
     3.789779388467307        0.6559440046565553E-01
     3.800607329577213        0.6477222157316652E-01
     3.811435270687120        0.6395774956815517E-01
     3.822263211797026        0.6315090712175996E-01
     3.833091152906933        0.6235161742389616E-01
     3.843919094016839        0.6155980418404858E-01
     3.854747035126746        0.6077539163188244E-01
     3.865574976236652        0.5999830451767836E-01
     3.876402917346559        0.5922846811259968E-01
     3.887230858456466        0.5846580820879709E-01
     3.898058799566372        0.5771025111935487E-01
     3.908886740676279        0.5696172367808708E-01
     3.919714681786186        0.5622015323918671E-01
     3.930542622896092        0.5548546767673488E-01
     3.941370564005999        0.5475759538407354E-01
     3.952198505115905        0.5403646527304821E-01
     3.963026446225812        0.5332200677312468E-01
     3.973854387335718        0.5261414983038423E-01
     3.984682328445625        0.5191282490640265E-01
     3.995510269555532        0.5121796297701702E-01
     4.006338210665438        0.5052949553098419E-01
     4.017166151775345        0.4984735456853601E-01
     4.027994092885251        0.4917147259983441E-01
     4.038822033995158        0.4850178264333074E-01
     4.049649975105065        0.4783821822403340E-01
     4.060477916214971        0.4718071337168647E-01
     4.071305857324877        0.4652920261886418E-01
     4.082133798434785        0.4588362099898328E-01
     4.092961739544691        0.4524390404423872E-01
     4.103789680654597        0.4460998778346278E-01
     4.114617621764504        0.4398180873991411E-01
     4.125445562874411        0.4335930392899768E-01
     4.136273503984317        0.4274241085591915E-01
     4.147101445094224        0.4213106751327650E-01
     4.157929386204130        0.4152521237859171E-01
     4.168757327314037        0.4092478441178567E-01
     4.179585268423944        0.4032972305259774E-01
     4.190413209533850        0.3973996821795418E-01
     4.201241150643757        0.3915546029928583E-01
     4.212069091753663        0.3857614015979961E-01
     4.222897032863570        0.3800194913170434E-01
     4.233724973973477        0.3743282901339433E-01
     4.244552915083383        0.3686872206659216E-01
     4.255380856193289        0.3630957101345303E-01
     4.266208797303197        0.3575531903363276E-01
     4.277036738413103        0.3520590976132142E-01
     4.287864679523009        0.3466128728224386E-01
     4.298692620632916        0.3412139613063039E-01
     4.309520561742823        0.3358618128615761E-01
     4.320348502852729        0.3305558817086238E-01
     4.331176443962636        0.3252956264603071E-01
     4.342004385072542        0.3200805100906135E-01
     4.352832326182449        0.3149099999030832E-01
     4.363660267292356        0.3097835674990223E-01
     4.374488208402262        0.3047006887455118E-01
     4.385316149512168        0.2996608437432471E-01
     4.396144090622076        0.2946635167942074E-01
     4.406972031731982        0.2897081963691694E-01
     4.417799972841888        0.2847943750750797E-01
     4.428627913951795        0.2799215496223002E-01
     4.439455855061702        0.2750892207917360E-01
     4.450283796171608        0.2702968934018578E-01
     4.461111737281515        0.2655440762756226E-01
     4.471939678391421        0.2608302822073285E-01
     4.482767619501328        0.2561550279293695E-01
     4.493595560611235        0.2515178340789520E-01
     4.504423501721141        0.2469182251647404E-01
     4.515251442831048        0.2423557295334612E-01
     4.526079383940955        0.2378298793364745E-01
     4.536907325050861        0.2333402104963150E-01
     4.547735266160768        0.2288862626732116E-01
     4.558563207270674        0.2244675792315986E-01
     4.569391148380581        0.2200837072066196E-01
     4.580219089490488        0.2157341972706440E-01
     4.591047030600394        0.2114186036997741E-01
     4.601874971710300        0.2071364843403908E-01
     4.612702912820208        0.2028874005757090E-01
     4.623530853930114        0.1986709172923697E-01
     4.634358795040020        0.1944866028470630E-01
     4.645186736149927        0.1903340290331964E-01
     4.656014677259834        0.1862127710476123E-01
     4.666842618369740        0.1821224074573478E-01
     4.677670559479647        0.1780625201664684E-01
     4.688498500589553        0.1740326943829427E-01
     4.699326441699460        0.1700325185856076E-01
     4.710154382809367        0.1660615844911951E-01
     4.720982323919273        0.1621194870214245E-01
     4.731810265029179        0.1582058242701819E-01
     4.742638206139087        0.1543201974707818E-01
     4.753466147248993        0.1504622109633293E-01
     4.764294088358899        0.1466314721621579E-01
     4.775122029468806        0.1428275915233750E-01
     4.785949970578713        0.1390501825124913E-01
     4.796777911688619        0.1352988615721596E-01
     4.807605852798526        0.1315732480900092E-01
     4.818433793908432        0.1278729643665926E-01
     4.829261735018339        0.1241976355834434E-01
     4.840089676128246        0.1205468897712353E-01
     4.850917617238152        0.1169203577780676E-01
     4.861745558348058        0.1133176732378584E-01
     4.872573499457966        0.1097384725388562E-01
     4.883401440567872        0.1061823947922720E-01
     4.894229381677778        0.1026490818018684E-01
     4.905057322787685        0.9913817819657675E-02
     4.915885263897592        0.9564933565404025E-02
     4.926713205007498        0.9218224394111603E-02
     4.937541146117405        0.8873672706864826E-02
     4.948369087227311        0.8531290807583971E-02
     4.959197028337218        0.8191139545560175E-02
     4.970024969447125        0.7853343529866823E-02
     4.980852910557031        0.7518099725112792E-02
     4.991680851666938        0.7185678927176212E-02
     5.002508792776845        0.6856421246500406E-02
     5.013336733886751        0.6530727317760130E-02
     5.024164674996658        0.6209046923490231E-02
     5.034992616106564        0.5891866419595165E-02
     5.045820557216471        0.5579695989715108E-02
     5.056648498326378        0.5273057428584416E-02
     5.067476439436284        0.4972472893515083E-02
     5.078304380546190        0.4678454869467632E-02
     5.089132321656098        0.4391497456712782E-02
     5.099960262766004        0.4112068998042994E-02
     5.110788203875910        0.3840606003159503E-02
     5.121616144985817        0.3577508291742271E-02
     5.132444086095724        0.3323135256621905E-02
     5.143272027205630        0.3077803139170155E-02
     5.154099968315537        0.2841783206784748E-02
     5.164927909425443        0.2615300724576256E-02
     5.175755850535350        0.2398534618270908E-02
     5.186583791645257        0.2191617731723070E-02
     5.197411732755163        0.1994637589439752E-02
     5.208239673865069        0.1807637581608273E-02
     5.219067614974977        0.1630618495859724E-02
     5.229895556084883        0.1463540326086003E-02
     5.240723497194789        0.1306324293727955E-02
     5.251551438304696        0.1158855020690727E-02
     5.262379379414603        0.1020982794834014E-02
     5.273207320524509        0.8925258678804733E-03
     5.284035261634416        0.7732727198742856E-03
     5.294863202744322        0.6629842108244103E-03
     5.305691143854229        0.5613955126411857E-03
     5.316519084964136        0.4682176600630758E-03
     5.327347026074042        0.3831384497288254E-03
     5.338174967183948        0.3058221850175648E-03
     5.349002908293856        0.2359072367110836E-03
     5.359830849403762        0.1729990541930483E-03
     5.370658790513668        0.1166523445194128E-03
     5.381486731623575        0.6632245326041839E-04
     5.392314672733482        0.2118553541501165E-04
     5.403142613843388         0.000000000000000    
  0  3  2  0  0.000000   #orbital l, n, z, is_polarized, population
 500    0.7724429586526872E-02     3.854490363676909     # npts, delta, cutoff
     0.000000000000000       -0.1767373736266143    
    0.7724429586526872E-02   -0.1766709653288965    
    0.1544885917305374E-01   -0.1764673912779579    
    0.2317328875958061E-01   -0.1761281222806352    
    0.3089771834610749E-01   -0.1756531928432862    
    0.3862214793263436E-01   -0.1750426517502750    
    0.4634657751916123E-01   -0.1742965634073343    
    0.5407100710568810E-01   -0.1734150091944315    
    0.6179543669221498E-01   -0.1723980890520526    
    0.6951986627874185E-01   -0.1712459233131909    
    0.7724429586526872E-01   -0.1699586547701750    
    0.8496872545179560E-01   -0.1685364509595457    
    0.9269315503832246E-01   -0.1669795066453096    
    0.1004175846248493       -0.1652880464788056    
    0.1081420142113762       -0.1634623278117305    
    0.1158664437979031       -0.1615026436374365    
    0.1235908733844300       -0.1594093256343916    
    0.1313153029709568       -0.1571827472847402    
    0.1390397325574837       -0.1548233270401396    
    0.1467641621440106       -0.1523315315065552    
    0.1544885917305374       -0.1497078786194185    
    0.1622130213170643       -0.1469529407805344    