<preamble>

<basis_specs>
===============================================================================
Si                   Z=  14    Mass=  28.090        Charge= 0.17977+309
Lmxo=2 Lmxkb= 2    BasisType=split      Semic=F
L=0  Nsemic=0  Cnfigmx=3
          i=1  nzeta=2  polorb=0  (3s)
            splnorm:   0.15000    
               vcte:    40.000    
               rinn:    4.8921    
               qcoe:    0.0000    
               qyuk:    0.0000    
               qwid:   0.10000E-01
                rcs:    5.4357      3.8816    
            lambdas:    1.0000      1.0000    
L=1  Nsemic=0  Cnfigmx=3
          i=1  nzeta=2  polorb=1  (3p)  (to be polarized perturbatively)
            splnorm:   0.15000    
               vcte:    40.000    
               rinn:    6.2154    
               qcoe:    0.0000    
               qyuk:    0.0000    
               qwid:   0.10000E-01
                rcs:    6.8990      5.0120    
            lambdas:    1.0000      1.0000    
L=2  Nsemic=0  Cnfigmx=3
          i=1  nzeta=0  polorb=0  (3d)  (perturbative polarization orbital) (from 3p)
-------------------------------------------------------------------------------
L=0  Nkbl=1  erefs: 0.17977+309
L=1  Nkbl=1  erefs: 0.17977+309
L=2  Nkbl=1  erefs: 0.17977+309
===============================================================================
</basis_specs>

<pseudopotential_header>
 Si pb nrl pcec
 ONCVPSP-3.2017-10-31Hamann's oncvpsp                        
 3s 2.00  r= 1.60/3p 2.00  r= 1.72/3d 0.00  r= 1.92/                    3s:3p:
</pseudopotential_header>
</preamble>
Si                            # Symbol
Si                            # Label
   14                         # Atomic number
     4.00000000000                             # Valence charge
     28.0900000000        # Mass 
     14.2535667226        # Self energy 
   2   5                      # Lmax for basis, no. of nl orbitals 
   2   6                      # Lmax for projectors, no. of nl KB projectors
# PAOs:__________________________
  0  3  1  0  2.000000   #orbital l, n, z, is_polarized, population
 500    0.1089322465182222E-01     5.435719101259290     # npts, delta, cutoff
     0.000000000000000        0.1216677026775731    
    0.1089322465182222E-01    0.1217277196630469    
    0.2178644930364445E-01    0.1219101961204828    
    0.3267967395546667E-01    0.1222143093068214    
    0.4357289860728889E-01    0.1226400348076704    
    0.5446612325911111E-01    0.1231873344621473    
    0.6535934791093334E-01    0.1238561521207691    
    0.7625257256275556E-01    0.1246464084545399    
    0.8714579721457778E-01    0.1255579948103990    
    0.9803902186640001E-01    0.1265907662074663    
    0.1089322465182222        0.1277445335915950    
    0.1198254711700445        0.1290190554800274    
    0.1307186958218667        0.1304140291389086    
    0.1416119204736889        0.1319290814447181    
    0.1525051451255111        0.1335637595863906    
    0.1633983697773334        0.1353175217679769    
    0.1742915944291556        0.1371897280721087    
    0.1851848190809778        0.1391796316422847    
    0.1960780437328000        0.1412863703371337    
    0.2069712683846222        0.1435089590024266    
    0.2178644930364445        0.1458462824968276    
    0.2287577176882667        0.1482970895953745    
    0.2396509423400889        0.1508599878806613    
    0.2505441669919111        0.1535334397159011    
    0.2614373916437334        0.1563157593767604    
    0.2723306162955555        0.1592051114003464    
    0.2832238409473778        0.1621995101903413    
    0.2941170655992000        0.1652968208973101    
    0.3050102902510222        0.1684947615730280    
    0.3159035149028445        0.1717909065775990    
    0.3267967395546667        0.1751826911985091    
    0.3376899642064889        0.1786674174219225    
    0.3485831888583111        0.1822422607787706    
    0.3594764135101334        0.1859042781718240    
    0.3703696381619556        0.1896504165752356    
    0.3812628628137778        0.1934775224852384    
    0.3921560874656000        0.1973823519899821    
    0.4030493121174222        0.2013615813180828    
    0.4139425367692445        0.2054118177194544    
    0.4248357614210667        0.2095296105284885    
    0.4357289860728889        0.2137114622587045    
    0.4466222107247111        0.2179538395795915    
    0.4575154353765334        0.2222531840304902    
    0.4684086600283556        0.2266059223329099    
    0.4793018846801778        0.2310084761715385    
    0.4901951093320001        0.2354572713252064    
    0.5010883339838222        0.2399487460420073    
    0.5119815586356444        0.2444793585674456    
    0.5228747832874667        0.2490455937505729    
    0.5337680079392889        0.2536439686703542    
    0.5446612325911111        0.2582710372426193    
    0.5555544572429334        0.2629233937866219    
    0.5664476818947556        0.2675976755490935    
    0.5773409065465778        0.2722905642024240    
    0.5882341311984001        0.2769987863519118    
    0.5991273558502223        0.2817191131045374    
    0.6100205805020444        0.2864483587681847    
    0.6209138051538667        0.2911833787653315    
    0.6318070298056889        0.2959210668587104    
    0.6427002544575111        0.3006583517980620    
    0.6535934791093334        0.3053921935067161    
    0.6644867037611556        0.3101195789340703    
    0.6753799284129778        0.3148375177051090    
    0.6862731530648001        0.3195430377007177    
    0.6971663777166223        0.3242331807027230    
    0.7080596023684445        0.3289049982353210    
    0.7189528270202667        0.3335555477298831    
    0.7298460516720889        0.3381818891331435    
    0.7407392763239111        0.3427810820696260    
    0.7516325009757334        0.3473501836579827    
    0.7625257256275556        0.3518862470679737    
    0.7734189502793778        0.3563863208902637    
    0.7843121749312001        0.3608474493753819    
    0.7952053995830223        0.3652666735813572    
    0.8060986242348445        0.3696410334519594    
    0.8169918488866668        0.3739675708295475    
    0.8278850735384889        0.3782433333885077    
    0.8387782981903111        0.3824653794574958    
    0.8496715228421334        0.3866307836815183    
    0.8605647474939556        0.3907366434585861    
    0.8714579721457778        0.3947800860705443    
    0.8823511967976001        0.3987582764139880    
    0.8932444214494223        0.4026684252251885    
    0.9041376461012445        0.4065077976828348    
    0.9150308707530668        0.4102737222643492    
    0.9259240954048890        0.4139635997257425    
    0.9368173200567111        0.4175749120713974    
    0.9477105447085334        0.4211052313790548    
    0.9586037693603556        0.4245522283464469    
    0.9694969940121778        0.4279136804295848    
    0.9803902186640001        0.4311874794485345    
    0.9912834433158223        0.4343716385444747    
     1.002176667967644        0.4374642983818440    
     1.013069892619467        0.4404637325011903    
     1.023963117271289        0.4433683517417787    
     1.034856341923111        0.4461767076678452    
     1.045749566574933        0.4488874949482913    
     1.056642791226756        0.4514995526564217    
     1.067536015878578        0.4540118644736285    
     1.078429240530400        0.4564235577985040    
     1.089322465182222        0.4587339017803969    
     1.100215689834044        0.4609423043135814    
     1.111108914485867        0.4630483080447709    
     1.122002139137689        0.4650515854623036    
     1.132895363789511        0.4669519331497752    
     1.143788588441333        0.4687492652999171    
     1.154681813093156        0.4704436065959137    
     1.165575037744978        0.4720350845768994    
     1.176468262396800        0.4735239216120054    
     1.187361487048622        0.4749104266127896    
     1.198254711700445        0.4761949866172533    
     1.209147936352267        0.4773780583797048    
     1.220041161004089        0.4784601600996316    
     1.230934385655911        0.4794418634193909    
     1.241827610307733        0.4803237858150514    
     1.252720834959556        0.4811065834972226    
     1.263614059611378        0.4817909449292653    
     1.274507284263200        0.4823775850591546    
     1.285400508915022        0.4828672403485380    
     1.296293733566845        0.4832606646685270    
     1.307186958218667        0.4835586261166268    
     1.318080182870489        0.4837619047932639    
     1.328973407522311        0.4838712915598379    
     1.339866632174133        0.4838875877834132    
     1.350759856825956        0.4838116060563176    
     1.361653081477778        0.4836441718623328    
     1.372546306129600        0.4833861261451256    
     1.383439530781422        0.4830383287192954    
     1.394332755433245        0.4826016624502152    
     1.405225980085067        0.4820770381159099    
     1.416119204736889        0.4814653998527737    
     1.427012429388711        0.4807677310771599    
     1.437905654040533        0.4799850607669741    
     1.448798878692356        0.4791184699814283    
     1.459692103344178        0.4781690984932572    
     1.470585327996000        0.4771381514059323    
     1.481478552647822        0.4760269056288340    
     1.492371777299645        0.4748367160858930    
     1.503265001951467        0.4735690215378728    
     1.514158226603289        0.4722253499051370    
     1.525051451255111        0.4708073229863652    
     1.535944675906934        0.4693166604783677    
     1.546837900558756        0.4677551832142611    
     1.557731125210578        0.4661248231844700    
     1.568624349862400        0.4644276622847646    
     1.579517574514222        0.4626657725022171    
     1.590410799166045        0.4608413940747698    
     1.601304023817867        0.4589568798625424    
     1.612197248469689        0.4570146671915153    
     1.623090473121511        0.4550172191829669    
     1.633983697773334        0.4529669653421368    
     1.644876922425156        0.4508662632914206    
     1.655770147076978        0.4487173995811540    
     1.666663371728800        0.4465225996197385    
     1.677556596380622        0.4442840267938800    
     1.688449821032445        0.4420037822229295    
     1.699343045684267        0.4396839065085157    
     1.710236270336089        0.4373263809740020    
     1.721129494987911        0.4349331288192686    
     1.732022719639734        0.4325060165769450    
     1.742915944291556        0.4300468558426147    
     1.753809168943378        0.4275574052366995    
     1.764702393595200        0.4250393722565682    
     1.775595618247022        0.4224944146577424    
     1.786488842898845        0.4199241415539596    
     1.797382067550667        0.4173301144059427    
     1.808275292202489        0.4147138480499030    
     1.819168516854311        0.4120768119069707    
     1.830061741506134        0.4094204311729364    
     1.840954966157956        0.4067460878620803    
     1.851848190809778        0.4040551218212792    
     1.862741415461600        0.4013488317610836    
     1.873634640113422        0.3986284762649730    
     1.884527864765245        0.3958952747670786    
     1.895421089417067        0.3931504085077574    
     1.906314314068889        0.3903950214688769    
     1.917207538720711        0.3876302212879932    
     1.928100763372534        0.3848570801518563    
     1.938993988024356        0.3820766356699284    
     1.949887212676178        0.3792898917284767    
     1.960780437328000        0.3764978193257755    
     1.971673661979822        0.3737013573889596    
     1.982566886631645        0.3709014135730470    
     1.993460111283467        0.3680988650426441    
     2.004353335935289        0.3652945592368147    
     2.015246560587111        0.3624893146175893    
     2.026139785238934        0.3596839214025596    
     2.037033009890756        0.3568791422819901    
     2.047926234542578        0.3540757131208526    
     2.058819459194400        0.3512743436461735    
     2.069712683846222        0.3484757181200639    
     2.080605908498045        0.3456804959987773    
     2.091499133149867        0.3428893125781301    
     2.102392357801689        0.3401027796255948    
     2.113285582453511        0.3373214859993620    
     2.124178807105333        0.3345459982546520    
     2.135072031757156        0.3317768612375406    
     2.145965256408978        0.3290145986665458    
     2.156858481060800        0.3262597137022173    
     2.167751705712623        0.3235126895049487    
     2.178644930364444        0.3207739897812265    
     2.189538155016267        0.3180440593185175    
     2.200431379668089        0.3153233245089879    
     2.211324604319911        0.3126121938622305    
     2.222217828971734        0.3099110585071830    
     2.233111053623556        0.3072202926833952    
     2.244004278275378        0.3045402542218097    
     2.254897502927200        0.3018712850152062    
     2.265790727579022        0.2992137114784591    
     2.276683952230845        0.2965678449987468    
     2.287577176882667        0.2939339823758553    
     2.298470401534489        0.2913124062527048    
     2.309363626186311        0.2887033855362333    
     2.320256850838133        0.2861071758087624    
     2.331150075489956        0.2835240197299713    
     2.342043300141778        0.2809541474296028    
     2.352936524793600        0.2783977768910192    
     2.363829749445423        0.2758551143257315    
     2.374722974097244        0.2733263545390197    
     2.385616198749067        0.2708116812867631    
     2.396509423400889        0.2683112676235986    
     2.407402648052711        0.2658252762425239    
     2.418295872704534        0.2633538598060680    
     2.429189097356356        0.2608971612691436    
     2.440082322008178        0.2584553141937027    
     2.450975546660000        0.2560284430553153    
     2.461868771311822        0.2536166635417953    
     2.472761995963645        0.2512200828439898    
     2.483655220615467        0.2488387999388603    
     2.494548445267289        0.2464729058649788    
     2.505441669919111        0.2441224839905636    
     2.516334894570933        0.2417876102741808    
     2.527228119222756        0.2394683535182454    
     2.538121343874578        0.2371647756154420    
     2.549014568526400        0.2348769317882031    
     2.559907793178223        0.2326048708213752    
     2.570801017830044        0.2303486352882002    
     2.581694242481867        0.2281082617697541    
     2.592587467133689        0.2258837810679697    
     2.603480691785511        0.2236752184123826    
     2.614373916437334        0.2214825936607359    
     2.625267141089156        0.2193059214935773    
     2.636160365740978        0.2171452116029893    
     2.647053590392800        0.2150004688755831    
     2.657946815044622        0.2128716935699020    
     2.668840039696445        0.2107588814883599    
     2.679733264348267        0.2086620241438606    
     2.690626489000089        0.2065811089212279    
     2.701519713651911        0.2045161192335856    
     2.712412938303733        0.2024670346738188    
     2.723306162955556        0.2004338311612525    
     2.734199387607378        0.1984164810836782    
     2.745092612259200        0.1964149534348591    
     2.755985836911023        0.1944292139476451    
     2.766879061562844        0.1924592252228262    
     2.777772286214667        0.1905049468538510    
     2.788665510866489        0.1885663355475339    
     2.799558735518311        0.1866433452408741    
     2.810451960170134        0.1847359272141060    
     2.821345184821956        0.1828440302001004    
     2.832238409473778        0.1809676004902321    
     2.843131634125600        0.1791065820368289    
     2.854024858777422        0.1772609165523139    
     2.864918083429245        0.1754305436051452    
     2.875811308081067        0.1736154007126641    
     2.886704532732889        0.1718154234309542    
     2.897597757384711        0.1700305454418076    
     2.908490982036533        0.1682606986369030    
     2.919384206688356        0.1665058131992831    
     2.930277431340178        0.1647658176822314    
     2.941170655992000        0.1630406390856280    
     2.952063880643822        0.1613302029298806    
     2.962957105295644        0.1596344333275060    
     2.973850329947467        0.1579532530524468    
     2.984743554599289        0.1562865836072000    
     2.995636779251111        0.1546343452878319    
     3.006530003902934        0.1529964572469490    
     3.017423228554756        0.1513728375546999    
     3.028316453206578        0.1497634032578668    
     3.039209677858400        0.1481680704371157    
     3.050102902510222        0.1465867542624652    
     3.060996127162045        0.1450193690470293    
     3.071889351813867        0.1434658282990934    
     3.082782576465689        0.1419260447725756    
     3.093675801117511        0.1403999305159240    
     3.104569025769333        0.1388873969194978    
     3.115462250421156        0.1373883547614816    
     3.126355475072978        0.1359027142523735    
     3.137248699724800        0.1344303850780912    
     3.148141924376622        0.1329712764417371    
     3.159035149028445        0.1315252971040587    
     3.169928373680267        0.1300923554226423    
     3.180821598332089        0.1286723593898758    
     3.191714822983911        0.1272652166697118    
     3.202608047635734        0.1258708346332640    
     3.213501272287556        0.1244891203932682    
     3.224394496939378        0.1231199808374361    
     3.235287721591200        0.1217633226607303    
     3.246180946243022        0.1204190523965861    
     3.257074170894845        0.1190870764471086    
     3.267967395546667        0.1177673011122682    
     3.278860620198489        0.1164596326181171    
     3.289753844850311        0.1151639771440523    
     3.300647069502133        0.1138802408491486    
     3.311540294153956        0.1126083298975788    
     3.322433518805778        0.1113481504831470    
     3.333326743457600        0.1100996088529524    
     3.344219968109422        0.1088626113302059    
     3.355113192761245        0.1076370643362188    
     3.366006417413067        0.1064228744115817    
     3.376899642064889        0.1052199482365539    
     3.387792866716711        0.1040281926506816    
     3.398686091368534        0.1028475146716639    
     3.409579316020356        0.1016778215134840    
     3.420472540672178        0.1005190206038232    
     3.431365765324000        0.9937101960077813E-01
     3.442258989975822        0.9823372640889445E-01
     3.453152214627645        0.9710704919453936E-01
     3.464045439279467        0.9599089640062627E-01
     3.474938663931289        0.9488517676071104E-01
     3.485831888583111        0.9378979931247601E-01
     3.496725113234934        0.9270467341061848E-01
     3.507618337886756        0.9162970873916063E-01
     3.518511562538578        0.9056481532319806E-01
     3.529404787190400        0.8950990354010144E-01
     3.540298011842222        0.8846488413019023E-01
     3.551191236494045        0.8742966820689067E-01
     3.562084461145867        0.8640416726639841E-01
     3.572977685797689        0.8538829319685698E-01
     3.583870910449511        0.8438195828707097E-01
     3.594764135101334        0.8338507523476683E-01
     3.605657359753156        0.8239755715441641E-01
     3.616550584404978        0.8141931758463934E-01
     3.627443809056800        0.8045027049519607E-01
     3.638337033708622        0.7949033029358832E-01
     3.649230258360445        0.7853941183127830E-01
     3.660123483012267        0.7759743040954145E-01
     3.671016707664089        0.7666430178496562E-01
     3.681909932315911        0.7573994217460814E-01
     3.692803156967734        0.7482426826082482E-01
     3.703696381619556        0.7391719719578307E-01
     3.714589606271378        0.7301864660566731E-01
     3.725482830923200        0.7212853459459284E-01
     3.736376055575022        0.7124677974823579E-01
     3.747269280226845        0.7037330113719033E-01
     3.758162504878667        0.6950801832006419E-01
     3.769055729530489        0.6865085134632096E-01
     3.779948954182311        0.6780172075887936E-01
     3.790842178834134        0.6696054759647910E-01
     3.801735403485956        0.6612725339581980E-01
     3.812628628137778        0.6530176019348390E-01
     3.823521852789600        0.6448399052765083E-01
     3.834415077441423        0.6367386743960789E-01
     3.845308302093245        0.6287131447506852E-01
     3.856201526745067        0.6207625568530269E-01
     3.867094751396889        0.6128861562808679E-01
     3.877987976048711        0.6050831936847930E-01
     3.888881200700534        0.5973529247942871E-01
     3.899774425352356        0.5896946104221867E-01
     3.910667650004178        0.5821075164675681E-01
     3.921560874656000        0.5745909139171239E-01
     3.932454099307822        0.5671440788450730E-01
     3.943347323959645        0.5597662924116586E-01
     3.954240548611467        0.5524568408602786E-01
     3.965133773263289        0.5452150155132979E-01
     3.976026997915111        0.5380401127665776E-01
     3.986920222566934        0.5309314340827658E-01
     3.997813447218756        0.5238882859833931E-01
     4.008706671870578        0.5169099800398122E-01
     4.019599896522401        0.5099958328630073E-01
     4.030493121174223        0.5031451660923233E-01
     4.041386345826044        0.4963573063831495E-01
     4.052279570477867        0.4896315853935678E-01
     4.063172795129689        0.4829673397700397E-01
     4.074066019781512        0.4763639111321311E-01
     4.084959244433334        0.4698206460563122E-01
     4.095852469085155        0.4633368960588771E-01
     4.106745693736978        0.4569120175780060E-01
     4.117638918388800        0.4505453719549858E-01
     4.128532143040623        0.4442363254146518E-01
     4.139425367692445        0.4379842490450375E-01
     4.150318592344267        0.4317885187762945E-01
     4.161211816996089        0.4256485153589025E-01
     4.172105041647911        0.4195636243411759E-01
     4.182998266299734        0.4135332360461258E-01
     4.193891490951556        0.4075567455476943E-01
     4.204784715603378        0.4016335526463587E-01
     4.215677940255200        0.3957630618441810E-01
     4.226571164907022        0.3899446823192965E-01
     4.237464389558845        0.3841778278998649E-01
     4.248357614210667        0.3784619170375315E-01
     4.259250838862489        0.3727963727804019E-01
     4.270144063514311        0.3671806227455626E-01
     4.281037288166133        0.3616140990911756E-01
     4.291930512817956        0.3560962384881599E-01
     4.302823737469778        0.3506264820914944E-01
     4.313716962121600        0.3452042755111538E-01
     4.324610186773422        0.3398290687827064E-01
     4.335503411425245        0.3345003163375909E-01
     4.346396636077067        0.3292174769730993E-01
     4.357289860728889        0.3239800138220730E-01
     4.368183085380712        0.3187873943223484E-01
     4.379076310032533        0.3136390901859541E-01
     4.389969534684356        0.3085345773680826E-01
     4.400862759336178        0.3034733360358843E-01
     4.411755983988000        0.2984548505370430E-01
     4.422649208639823        0.2934786093681986E-01
     4.433542433291644        0.2885441051432823E-01
     4.444435657943467        0.2836508345616187E-01
     4.455328882595289        0.2787982983757631E-01
     4.466222107247112        0.2739860013593172E-01
     4.477115331898934        0.2692134522746864E-01
     4.488008556550755        0.2644801638403771E-01
     4.498901781202578        0.2597856526988552E-01
     4.509795005854400        0.2551294393848784E-01
     4.520688230506223        0.2505110482932607E-01
     4.531581455158045        0.2459300076464680E-01
     4.542474679809867        0.2413858494627843E-01
     4.553367904461689        0.2368781095227871E-01
     4.564261129113511        0.2324063273348818E-01
     4.575154353765334        0.2279700461015423E-01
     4.586047578417156        0.2235688126856800E-01
     4.596940803068978        0.2192021775767499E-01
     4.607834027720800        0.2148696948581252E-01
     4.618727252372622        0.2105709221753134E-01
     4.629620477024445        0.2063054207040557E-01
     4.640513701676267        0.2020727551186828E-01
     4.651406926328089        0.1978724935600896E-01
     4.662300150979911        0.1937042076048321E-01
     4.673193375631733        0.1895674722349432E-01
     4.684086600283556        0.1854618658069629E-01
     4.694979824935378        0.1813869700206778E-01
     4.705873049587201        0.1773423698886386E-01
     4.716766274239022        0.1733276537036470E-01
     4.727659498890845        0.1693424130035762E-01
     4.738552723542667        0.1653862425374664E-01
     4.749445948194489        0.1614587402316947E-01
     4.760339172846312        0.1575595071555742E-01
     4.771232397498133        0.1536881474877110E-01
     4.782125622149956        0.1498442684851266E-01
     4.793018846801778        0.1460274804515623E-01
     4.803912071453600        0.1422373967058434E-01
     4.814805296105423        0.1384736335506006E-01
     4.825698520757244        0.1347358102412402E-01
     4.836591745409067        0.1310235489538967E-01
     4.847484970060889        0.1273364747537514E-01
     4.858378194712712        0.1236742155635591E-01
     4.869271419364534        0.1200364021322618E-01
     4.880164644016356        0.1164226680036196E-01
     4.891057868668178        0.1128326494851258E-01
     4.901951093320000        0.1092659856170390E-01
     4.912844317971823        0.1057223181414754E-01
     4.923737542623645        0.1022012914724660E-01
     4.934630767275467        0.9870255282927976E-02
     4.945523991927289        0.9522575646720103E-02
     4.956417216579111        0.9177059476661489E-02
     4.967310441230934        0.8833689453140418E-02
     4.978203665882756        0.8492478200324742E-02
     4.989096890534578        0.8153486951673714E-02
     4.999990115186400        0.7816840778278584E-02
     5.010883339838222        0.7482737185208254E-02
     5.021776564490045        0.7151447574879038E-02
     5.032669789141867        0.6823312708001769E-02
     5.043563013793690        0.6498733884637134E-02
     5.054456238445511        0.6178161536395096E-02
     5.065349463097333        0.5862082620454945E-02
     5.076242687749156        0.5551007844384653E-02
     5.087135912400978        0.5245459423244826E-02
     5.098029137052801        0.4945959808920430E-02
     5.108922361704622        0.4653021637562320E-02
     5.119815586356445        0.4367139004259587E-02
     5.130708811008267        0.4088780081823072E-02
     5.141602035660089        0.3818381041076900E-02
     5.152495260311912        0.3556341193848291E-02
     5.163388484963733        0.3303019259698792E-02
     5.174281709615556        0.3058730648105231E-02
     5.185174934267378        0.2823745645549899E-02
     5.196068158919200        0.2598288399206168E-02
     5.206961383571023        0.2382536593833181E-02
     5.217854608222845        0.2176621724885502E-02
     5.228747832874667        0.1980629877885518E-02
     5.239641057526489        0.1794602931219053E-02
     5.250534282178312        0.1618540106296467E-02
     5.261427506830134        0.1452399795141824E-02
     5.272320731481956        0.1296101600619517E-02
     5.283213956133778        0.1149528528293597E-02
     5.294107180785600        0.1012529270771292E-02
     5.305000405437423        0.8849205243542047E-03
     5.315893630089245        0.7664892722205830E-03
     5.326786854741067        0.6569949550245254E-03
     5.337680079392889        0.5561714225339892E-03
     5.348573304044711        0.4637285059628180E-03
     5.359466528696534        0.3793529419420937E-03
     5.370359753348356        0.3027081492064462E-03
     5.381252978000179        0.2334318351577069E-03
     5.392146202652000        0.1711290830976895E-03
     5.403039427303822        0.1153546791290516E-03
     5.413932651955645        0.6556484097245388E-04
     5.424825876607467        0.2093856812809326E-04
     5.435719101259290         0.000000000000000    
  0  3  2  0  0.000000   #orbital l, n, z, is_polarized, population
 500    0.7778831057201892E-02     3.881636697543744     # npts, delta, cutoff
     0.000000000000000       -0.1517257602538202    
    0.7778831057201892E-02   -0.1516647653665938    
    0.1555766211440378E-01   -0.1514769672732709    
    0.2333649317160567E-01   -0.1511639764335983    
    0.3111532422880757E-01   -0.1507258049642875    
    0.3889415528600946E-01   -0.1501624703235935    
    0.4667298634321135E-01   -0.1494739967593830    
    0.5445181740041324E-01   -0.1486604167605944    
    0.6223064845761513E-01   -0.1477217727583311    
    0.7000947951481702E-01   -0.1466581190906118    
    0.7778831057201892E-01   -0.1454695242194551    
    0.8556714162922081E-01   -0.1441560731825718    
    0.9334597268642270E-01   -0.1427178702588411    
    0.1011248037436246       -0.1411550418245400    
    0.1089036348008265       -0.1394677393755083    
    0.1166824658580284       -0.1376561426889144    
    0.1244612969152303       -0.1357204630970285    
    0.1322401279724321       -0.1336609468443901    
    0.1400189590296340       -0.1314778784989928    
    0.1477977900868359       -0.1291715843875899    
    0.1555766211440378       -0.1267424360249646    
    0.1633554522012397       -0.1241908535070037    